ITEM: TIMESTEP
0
ITEM: NUMBER OF NODES
8
ITEM: BOX BOUNDS
-0.0432303 416.065
-0.0205235 132.148
0 39.3003
ITEM: NODES
1 1 -0.0432303 -0.0205235 0
2 1 416.065 -0.0205235 0
3 1 416.065 132.148 0
4 1 -0.0432303 132.148 0
5 1 -0.0432303 -0.0205235 39.3003
6 1 416.065 -0.0205235 39.3003
7 1 416.065 132.148 39.3003
8 1 -0.0432303 132.148 39.3003
ITEM: TIMESTEP
0
ITEM: NUMBER OF CUBES
1
ITEM: CUBES
1 1 1 2 3 4 5 6 7 8
ITEM: TIMESTEP
0
ITEM: NUMBER OF NODES
8
ITEM: BOX BOUNDS
-0.0432303 416.065
-0.0205235 132.148
0 39.3003
ITEM: NODES
1 1 -0.0432303 -0.0205235 0
2 1 416.065 -0.0205235 0
3 1 416.065 132.148 0
4 1 -0.0432303 132.148 0
5 1 -0.0432303 -0.0205235 39.3003
6 1 416.065 -0.0205235 39.3003
7 1 416.065 132.148 39.3003
8 1 -0.0432303 132.148 39.3003
ITEM: TIMESTEP
0
ITEM: NUMBER OF CUBES
1
ITEM: CUBES
1 1 1 2 3 4 5 6 7 8
ITEM: TIMESTEP
100
ITEM: NUMBER OF NODES
8
ITEM: BOX BOUNDS
-0.0432303 416.065
-0.0205235 132.298
0 39.3003
ITEM: NODES
1 1 -0.0432303 -0.0205235 0
2 1 416.065 -0.0205235 0
3 1 416.065 132.298 0
4 1 -0.0432303 132.298 0
5 1 -0.0432303 -0.0205235 39.3003
6 1 416.065 -0.0205235 39.3003
7 1 416.065 132.298 39.3003
8 1 -0.0432303 132.298 39.3003
ITEM: TIMESTEP
100
ITEM: NUMBER OF CUBES
1
ITEM: CUBES
1 1 1 2 3 4 5 6 7 8
ITEM: TIMESTEP
200
ITEM: NUMBER OF NODES
8
ITEM: BOX BOUNDS
-0.0432303 416.065
-0.0205235 132.4
0 39.3003
ITEM: NODES
1 1 -0.0432303 -0.0205235 0
2 1 416.065 -0.0205235 0
3 1 416.065 132.4 0
4 1 -0.0432303 132.4 0
5 1 -0.0432303 -0.0205235 39.3003
6 1 416.065 -0.0205235 39.3003
7 1 416.065 132.4 39.3003
8 1 -0.0432303 132.4 39.3003
ITEM: TIMESTEP
200
ITEM: NUMBER OF CUBES
1
ITEM: CUBES
1 1 1 2 3 4 5 6 7 8
ITEM: TIMESTEP
300
ITEM: NUMBER OF NODES
8
ITEM: BOX BOUNDS
-0.0432303 416.065
-0.0205235 132.325
0 39.3003
ITEM: NODES
1 1 -0.0432303 -0.0205235 0
2 1 416.065 -0.0205235 0
3 1 416.065 132.325 0
4 1 -0.0432303 132.325 0
5 1 -0.0432303 -0.0205235 39.3003
6 1 416.065 -0.0205235 39.3003
7 1 416.065 132.325 39.3003
8 1 -0.0432303 132.325 39.3003
ITEM: TIMESTEP
300
ITEM: NUMBER OF CUBES
1
ITEM: CUBES
1 1 1 2 3 4 5 6 7 8
ITEM: TIMESTEP
400
ITEM: NUMBER OF NODES
8
ITEM: BOX BOUNDS
-0.0432303 416.065
-0.0205235 132.429
0 39.3003
ITEM: NODES
1 1 -0.0432303 -0.0205235 0
2 1 416.065 -0.0205235 0
3 1 416.065 132.429 0
4 1 -0.0432303 132.429 0
5 1 -0.0432303 -0.0205235 39.3003
6 1 416.065 -0.0205235 39.3003
7 1 416.065 132.429 39.3003
8 1 -0.0432303 132.429 39.3003
ITEM: TIMESTEP
400
ITEM: NUMBER OF CUBES
1
ITEM: CUBES
1 1 1 2 3 4 5 6 7 8
ITEM: TIMESTEP
500
ITEM: NUMBER OF NODES
8
ITEM: BOX BOUNDS
-0.0432303 416.065
-0.0205235 132.436
0 39.3003
ITEM: NODES
1 1 -0.0432303 -0.0205235 0
2 1 416.065 -0.0205235 0
3 1 416.065 132.436 0
4 1 -0.0432303 132.436 0
5 1 -0.0432303 -0.0205235 39.3003
6 1 416.065 -0.0205235 39.3003
7 1 416.065 132.436 39.3003
8 1 -0.0432303 132.436 39.3003
ITEM: TIMESTEP
500
ITEM: NUMBER OF CUBES
1
ITEM: CUBES
1 1 1 2 3 4 5 6 7 8
ITEM: TIMESTEP
600
ITEM: NUMBER OF NODES
8
ITEM: BOX BOUNDS
-0.0432303 416.065
-0.0205235 132.519
0 39.3003
ITEM: NODES
1 1 -0.0432303 -0.0205235 0
2 1 416.065 -0.0205235 0
3 1 416.065 132.519 0
4 1 -0.0432303 132.519 0
5 1 -0.0432303 -0.0205235 39.3003
6 1 416.065 -0.0205235 39.3003
7 1 416.065 132.519 39.3003
8 1 -0.0432303 132.519 39.3003
ITEM: TIMESTEP
600
ITEM: NUMBER OF CUBES
1
ITEM: CUBES
1 1 1 2 3 4 5 6 7 8
ITEM: TIMESTEP
700
ITEM: NUMBER OF NODES
8
ITEM: BOX BOUNDS
-0.0432303 416.065
-0.0205235 132.676
0 39.3003
ITEM: NODES
1 1 -0.0432303 -0.0205235 0
2 1 416.065 -0.0205235 0
3 1 416.065 132.676 0
4 1 -0.0432303 132.676 0
5 1 -0.0432303 -0.0205235 39.3003
6 1 416.065 -0.0205235 39.3003
7 1 416.065 132.676 39.3003
8 1 -0.0432303 132.676 39.3003
ITEM: TIMESTEP
700
ITEM: NUMBER OF CUBES
1
ITEM: CUBES
1 1 1 2 3 4 5 6 7 8
ITEM: TIMESTEP
800
ITEM: NUMBER OF NODES
8
ITEM: BOX BOUNDS
-0.0432303 416.065
-0.0205235 132.87
0 39.3003
ITEM: NODES
1 1 -0.0432303 -0.0205235 0
2 1 416.065 -0.0205235 0
3 1 416.065 132.87 0
4 1 -0.0432303 132.87 0
5 1 -0.0432303 -0.0205235 39.3003
6 1 416.065 -0.0205235 39.3003
7 1 416.065 132.87 39.3003
8 1 -0.0432303 132.87 39.3003
ITEM: TIMESTEP
800
ITEM: NUMBER OF CUBES
1
ITEM: CUBES
1 1 1 2 3 4 5 6 7 8
ITEM: TIMESTEP
900
ITEM: NUMBER OF NODES
8
ITEM: BOX BOUNDS
-0.0432303 416.065
-0.0205235 132.711
0 39.3003
ITEM: NODES
1 1 -0.0432303 -0.0205235 0
2 1 416.065 -0.0205235 0
3 1 416.065 132.711 0
4 1 -0.0432303 132.711 0
5 1 -0.0432303 -0.0205235 39.3003
6 1 416.065 -0.0205235 39.3003
7 1 416.065 132.711 39.3003
8 1 -0.0432303 132.711 39.3003
ITEM: TIMESTEP
900
ITEM: NUMBER OF CUBES
1
ITEM: CUBES
1 1 1 2 3 4 5 6 7 8
ITEM: TIMESTEP
1000
ITEM: NUMBER OF NODES
8
ITEM: BOX BOUNDS
-0.0432303 416.065
-0.0205235 132.545
0 39.3003
ITEM: NODES
1 1 -0.0432303 -0.0205235 0
2 1 416.065 -0.0205235 0
3 1 416.065 132.545 0
4 1 -0.0432303 132.545 0
5 1 -0.0432303 -0.0205235 39.3003
6 1 416.065 -0.0205235 39.3003
7 1 416.065 132.545 39.3003
8 1 -0.0432303 132.545 39.3003
ITEM: TIMESTEP
1000
ITEM: NUMBER OF CUBES
1
ITEM: CUBES
1 1 1 2 3 4 5 6 7 8
ITEM: TIMESTEP
1100
ITEM: NUMBER OF NODES
8
ITEM: BOX BOUNDS
-0.0432303 416.065
-0.0205235 132.363
0 39.3003
ITEM: NODES
1 1 -0.0432303 -0.0205235 0
2 1 416.065 -0.0205235 0
3 1 416.065 132.363 0
4 1 -0.0432303 132.363 0
5 1 -0.0432303 -0.0205235 39.3003
6 1 416.065 -0.0205235 39.3003
7 1 416.065 132.363 39.3003
8 1 -0.0432303 132.363 39.3003
ITEM: TIMESTEP
1100
ITEM: NUMBER OF CUBES
1
ITEM: CUBES
1 1 1 2 3 4 5 6 7 8
ITEM: TIMESTEP
1200
ITEM: NUMBER OF NODES
8
ITEM: BOX BOUNDS
-0.0432303 416.065
-0.0205235 132.237
0 39.3003
ITEM: NODES
1 1 -0.0432303 -0.0205235 0
2 1 416.065 -0.0205235 0
3 1 416.065 132.237 0
4 1 -0.0432303 132.237 0
5 1 -0.0432303 -0.0205235 39.3003
6 1 416.065 -0.0205235 39.3003
7 1 416.065 132.237 39.3003
8 1 -0.0432303 132.237 39.3003
ITEM: TIMESTEP
1200
ITEM: NUMBER OF CUBES
1
ITEM: CUBES
1 1 1 2 3 4 5 6 7 8
ITEM: TIMESTEP
1300
ITEM: NUMBER OF NODES
8
ITEM: BOX BOUNDS
-0.0432303 416.065
-0.0205235 132.174
0 39.3003
ITEM: NODES
1 1 -0.0432303 -0.0205235 0
2 1 416.065 -0.0205235 0
3 1 416.065 132.174 0
4 1 -0.0432303 132.174 0
5 1 -0.0432303 -0.0205235 39.3003
6 1 416.065 -0.0205235 39.3003
7 1 416.065 132.174 39.3003
8 1 -0.0432303 132.174 39.3003
ITEM: TIMESTEP
1300
ITEM: NUMBER OF CUBES
1
ITEM: CUBES
1 1 1 2 3 4 5 6 7 8
ITEM: TIMESTEP
1400
ITEM: NUMBER OF NODES
8
ITEM: BOX BOUNDS
-0.0432303 416.065
-0.0205235 132.148
0 39.3003
ITEM: NODES
1 1 -0.0432303 -0.0205235 0
2 1 416.065 -0.0205235 0
3 1 416.065 132.148 0
4 1 -0.0432303 132.148 0
5 1 -0.0432303 -0.0205235 39.3003
6 1 416.065 -0.0205235 39.3003
7 1 416.065 132.148 39.3003
8 1 -0.0432303 132.148 39.3003
ITEM: TIMESTEP
1400
ITEM: NUMBER OF CUBES
1
ITEM: CUBES
1 1 1 2 3 4 5 6 7 8
ITEM: TIMESTEP
1500
ITEM: NUMBER OF NODES
8
ITEM: BOX BOUNDS
-0.0432303 416.065
-0.0205235 132.148
0 39.3003
ITEM: NODES
1 1 -0.0432303 -0.0205235 0
2 1 416.065 -0.0205235 0
3 1 416.065 132.148 0
4 1 -0.0432303 132.148 0
5 1 -0.0432303 -0.0205235 39.3003
6 1 416.065 -0.0205235 39.3003
7 1 416.065 132.148 39.3003
8 1 -0.0432303 132.148 39.3003
ITEM: TIMESTEP
1500
ITEM: NUMBER OF CUBES
1
ITEM: CUBES
1 1 1 2 3 4 5 6 7 8
ITEM: TIMESTEP
1600
ITEM: NUMBER OF NODES
8
ITEM: BOX BOUNDS
-0.0432303 416.065
-0.0205235 132.148
0 39.3003
ITEM: NODES
1 1 -0.0432303 -0.0205235 0
2 1 416.065 -0.0205235 0
3 1 416.065 132.148 0
4 1 -0.0432303 132.148 0
5 1 -0.0432303 -0.0205235 39.3003
6 1 416.065 -0.0205235 39.3003
7 1 416.065 132.148 39.3003
8 1 -0.0432303 132.148 39.3003
ITEM: TIMESTEP
1600
ITEM: NUMBER OF CUBES
1
ITEM: CUBES
1 1 1 2 3 4 5 6 7 8
ITEM: TIMESTEP
1700
ITEM: NUMBER OF NODES
8
ITEM: BOX BOUNDS
-0.0432303 416.065
-0.0205235 132.148
0 39.3003
ITEM: NODES
1 1 -0.0432303 -0.0205235 0
2 1 416.065 -0.0205235 0
3 1 416.065 132.148 0
4 1 -0.0432303 132.148 0
5 1 -0.0432303 -0.0205235 39.3003
6 1 416.065 -0.0205235 39.3003
7 1 416.065 132.148 39.3003
8 1 -0.0432303 132.148 39.3003
ITEM: TIMESTEP
1700
ITEM: NUMBER OF CUBES
1
ITEM: CUBES
1 1 1 2 3 4 5 6 7 8
ITEM: TIMESTEP
1800
ITEM: NUMBER OF NODES
8
ITEM: BOX BOUNDS
-0.0432303 416.065
-0.0205235 132.148
0 39.3003
ITEM: NODES
1 1 -0.0432303 -0.0205235 0
2 1 416.065 -0.0205235 0
3 1 416.065 132.148 0
4 1 -0.0432303 132.148 0
5 1 -0.0432303 -0.0205235 39.3003
6 1 416.065 -0.0205235 39.3003
7 1 416.065 132.148 39.3003
8 1 -0.0432303 132.148 39.3003
ITEM: TIMESTEP
1800
ITEM: NUMBER OF CUBES
1
ITEM: CUBES
1 1 1 2 3 4 5 6 7 8
ITEM: TIMESTEP
1900
ITEM: NUMBER OF NODES
8
ITEM: BOX BOUNDS
-0.0432303 416.065
-0.0205235 132.148
0 39.3003
ITEM: NODES
1 1 -0.0432303 -0.0205235 0
2 1 416.065 -0.0205235 0
3 1 416.065 132.148 0
4 1 -0.0432303 132.148 0
5 1 -0.0432303 -0.0205235 39.3003
6 1 416.065 -0.0205235 39.3003
7 1 416.065 132.148 39.3003
8 1 -0.0432303 132.148 39.3003
ITEM: TIMESTEP
1900
ITEM: NUMBER OF CUBES
1
ITEM: CUBES
1 1 1 2 3 4 5 6 7 8
ITEM: TIMESTEP
2000
ITEM: NUMBER OF NODES
8
ITEM: BOX BOUNDS
-0.0432303 416.065
-0.0205235 132.148
0 39.3003
ITEM: NODES
1 1 -0.0432303 -0.0205235 0
2 1 416.065 -0.0205235 0
3 1 416.065 132.148 0
4 1 -0.0432303 132.148 0
5 1 -0.0432303 -0.0205235 39.3003
6 1 416.065 -0.0205235 39.3003
7 1 416.065 132.148 39.3003
8 1 -0.0432303 132.148 39.3003
ITEM: TIMESTEP
2000
ITEM: NUMBER OF CUBES
1
ITEM: CUBES
1 1 1 2 3 4 5 6 7 8
ITEM: TIMESTEP
2100
ITEM: NUMBER OF NODES
8
ITEM: BOX BOUNDS
-0.0432303 416.065
-0.0205235 132.148
0 39.3003
ITEM: NODES
1 1 -0.0432303 -0.0205235 0
2 1 416.065 -0.0205235 0
3 1 416.065 132.148 0
4 1 -0.0432303 132.148 0
5 1 -0.0432303 -0.0205235 39.3003
6 1 416.065 -0.0205235 39.3003
7 1 416.065 132.148 39.3003
8 1 -0.0432303 132.148 39.3003
ITEM: TIMESTEP
2100
ITEM: NUMBER OF CUBES
1
ITEM: CUBES
1 1 1 2 3 4 5 6 7 8
ITEM: TIMESTEP
2200
ITEM: NUMBER OF NODES
8
ITEM: BOX BOUNDS
-0.0432303 416.065
-0.0205235 132.26
0 39.3003
ITEM: NODES
1 1 -0.0432303 -0.0205235 0
2 1 416.065 -0.0205235 0
3 1 416.065 132.26 0
4 1 -0.0432303 132.26 0
5 1 -0.0432303 -0.0205235 39.3003
6 1 416.065 -0.0205235 39.3003
7 1 416.065 132.26 39.3003
8 1 -0.0432303 132.26 39.3003
ITEM: TIMESTEP
2200
ITEM: NUMBER OF CUBES
1
ITEM: CUBES
1 1 1 2 3 4 5 6 7 8
ITEM: TIMESTEP
2300
ITEM: NUMBER OF NODES
8
ITEM: BOX BOUNDS
-0.0432303 416.065
-0.0205235 132.357
0 39.3003
ITEM: NODES
1 1 -0.0432303 -0.0205235 0
2 1 416.065 -0.0205235 0
3 1 416.065 132.357 0
4 1 -0.0432303 132.357 0
5 1 -0.0432303 -0.0205235 39.3003
6 1 416.065 -0.0205235 39.3003
7 1 416.065 132.357 39.3003
8 1 -0.0432303 132.357 39.3003
ITEM: TIMESTEP
2300
ITEM: NUMBER OF CUBES
1
ITEM: CUBES
1 1 1 2 3 4 5 6 7 8
ITEM: TIMESTEP
2400
ITEM: NUMBER OF NODES
8
ITEM: BOX BOUNDS
-0.0432303 416.065
-0.0205235 132.452
0 39.3003
ITEM: NODES
1 1 -0.0432303 -0.0205235 0
2 1 416.065 -0.0205235 0
3 1 416.065 132.452 0
4 1 -0.0432303 132.452 0
5 1 -0.0432303 -0.0205235 39.3003
6 1 416.065 -0.0205235 39.3003
7 1 416.065 132.452 39.3003
8 1 -0.0432303 132.452 39.3003
ITEM: TIMESTEP
2400
ITEM: NUMBER OF CUBES
1
ITEM: CUBES
1 1 1 2 3 4 5 6 7 8
ITEM: TIMESTEP
2500
ITEM: NUMBER OF NODES
8
ITEM: BOX BOUNDS
-0.0432303 416.065
-0.0205235 132.528
0 39.3003
ITEM: NODES
1 1 -0.0432303 -0.0205235 0
2 1 416.065 -0.0205235 0
3 1 416.065 132.528 0
4 1 -0.0432303 132.528 0
5 1 -0.0432303 -0.0205235 39.3003
6 1 416.065 -0.0205235 39.3003
7 1 416.065 132.528 39.3003
8 1 -0.0432303 132.528 39.3003
ITEM: TIMESTEP
2500
ITEM: NUMBER OF CUBES
1
ITEM: CUBES
1 1 1 2 3 4 5 6 7 8
ITEM: TIMESTEP
2600
ITEM: NUMBER OF NODES
8
ITEM: BOX BOUNDS
-0.0432303 416.065
-0.0205235 132.718
0 39.3003
ITEM: NODES
1 1 -0.0432303 -0.0205235 0
2 1 416.065 -0.0205235 0
3 1 416.065 132.718 0
4 1 -0.0432303 132.718 0
5 1 -0.0432303 -0.0205235 39.3003
6 1 416.065 -0.0205235 39.3003
7 1 416.065 132.718 39.3003
8 1 -0.0432303 132.718 39.3003
ITEM: TIMESTEP
2600
ITEM: NUMBER OF CUBES
1
ITEM: CUBES
1 1 1 2 3 4 5 6 7 8
ITEM: TIMESTEP
2700
ITEM: NUMBER OF NODES
8
ITEM: BOX BOUNDS
-0.0432303 416.065
-0.0205235 132.658
0 39.3003
ITEM: NODES
1 1 -0.0432303 -0.0205235 0
2 1 416.065 -0.0205235 0
3 1 416.065 132.658 0
4 1 -0.0432303 132.658 0
5 1 -0.0432303 -0.0205235 39.3003
6 1 416.065 -0.0205235 39.3003
7 1 416.065 132.658 39.3003
8 1 -0.0432303 132.658 39.3003
ITEM: TIMESTEP
2700
ITEM: NUMBER OF CUBES
1
ITEM: CUBES
1 1 1 2 3 4 5 6 7 8
ITEM: TIMESTEP
2800
ITEM: NUMBER OF NODES
8
ITEM: BOX BOUNDS
-0.0432303 416.065
-0.0205235 132.629
0 39.3003
ITEM: NODES
1 1 -0.0432303 -0.0205235 0
2 1 416.065 -0.0205235 0
3 1 416.065 132.629 0
4 1 -0.0432303 132.629 0
5 1 -0.0432303 -0.0205235 39.3003
6 1 416.065 -0.0205235 39.3003
7 1 416.065 132.629 39.3003
8 1 -0.0432303 132.629 39.3003
ITEM: TIMESTEP
2800
ITEM: NUMBER OF CUBES
1
ITEM: CUBES
1 1 1 2 3 4 5 6 7 8
ITEM: TIMESTEP
2900
ITEM: NUMBER OF NODES
8
ITEM: BOX BOUNDS
-0.0432303 416.065
-0.0205235 132.537
0 39.3003
ITEM: NODES
1 1 -0.0432303 -0.0205235 0
2 1 416.065 -0.0205235 0
3 1 416.065 132.537 0
4 1 -0.0432303 132.537 0
5 1 -0.0432303 -0.0205235 39.3003
6 1 416.065 -0.0205235 39.3003
7 1 416.065 132.537 39.3003
8 1 -0.0432303 132.537 39.3003
ITEM: TIMESTEP
2900
ITEM: NUMBER OF CUBES
1
ITEM: CUBES
1 1 1 2 3 4 5 6 7 8
ITEM: TIMESTEP
3000
ITEM: NUMBER OF NODES
8
ITEM: BOX BOUNDS
-0.0432303 416.065
-0.0205235 132.496
0 39.3003
ITEM: NODES
1 1 -0.0432303 -0.0205235 0
2 1 416.065 -0.0205235 0
3 1 416.065 132.496 0
4 1 -0.0432303 132.496 0
5 1 -0.0432303 -0.0205235 39.3003
6 1 416.065 -0.0205235 39.3003
7 1 416.065 132.496 39.3003
8 1 -0.0432303 132.496 39.3003
ITEM: TIMESTEP
3000
ITEM: NUMBER OF CUBES
1
ITEM: CUBES
1 1 1 2 3 4 5 6 7 8
ITEM: TIMESTEP
3100
ITEM: NUMBER OF NODES
8
ITEM: BOX BOUNDS
-0.0432303 416.065
-0.0205235 132.402
0 39.3003
ITEM: NODES
1 1 -0.0432303 -0.0205235 0
2 1 416.065 -0.0205235 0
3 1 416.065 132.402 0
4 1 -0.0432303 132.402 0
5 1 -0.0432303 -0.0205235 39.3003
6 1 416.065 -0.0205235 39.3003
7 1 416.065 132.402 39.3003
8 1 -0.0432303 132.402 39.3003
ITEM: TIMESTEP
3100
ITEM: NUMBER OF CUBES
1
ITEM: CUBES
1 1 1 2 3 4 5 6 7 8
ITEM: TIMESTEP
3200
ITEM: NUMBER OF NODES
8
ITEM: BOX BOUNDS
-0.0432303 416.065
-0.0205235 132.304
0 39.3003
ITEM: NODES
1 1 -0.0432303 -0.0205235 0
2 1 416.065 -0.0205235 0
3 1 416.065 132.304 0
4 1 -0.0432303 132.304 0
5 1 -0.0432303 -0.0205235 39.3003
6 1 416.065 -0.0205235 39.3003
7 1 416.065 132.304 39.3003
8 1 -0.0432303 132.304 39.3003
ITEM: TIMESTEP
3200
ITEM: NUMBER OF CUBES
1
ITEM: CUBES
1 1 1 2 3 4 5 6 7 8
ITEM: TIMESTEP
3300
ITEM: NUMBER OF NODES
8
ITEM: BOX BOUNDS
-0.0432303 416.065
-0.0205235 132.236
0 39.3003
ITEM: NODES
1 1 -0.0432303 -0.0205235 0
2 1 416.065 -0.0205235 0
3 1 416.065 132.236 0
4 1 -0.0432303 132.236 0
5 1 -0.0432303 -0.0205235 39.3003
6 1 416.065 -0.0205235 39.3003
7 1 416.065 132.236 39.3003
8 1 -0.0432303 132.236 39.3003
ITEM: TIMESTEP
3300
ITEM: NUMBER OF CUBES
1
ITEM: CUBES
1 1 1 2 3 4 5 6 7 8
ITEM: TIMESTEP
3400
ITEM: NUMBER OF NODES
8
ITEM: BOX BOUNDS
-0.0432303 416.065
-0.0205235 132.18
0 39.3003
ITEM: NODES
1 1 -0.0432303 -0.0205235 0
2 1 416.065 -0.0205235 0
3 1 416.065 132.18 0
4 1 -0.0432303 132.18 0
5 1 -0.0432303 -0.0205235 39.3003
6 1 416.065 -0.0205235 39.3003
7 1 416.065 132.18 39.3003
8 1 -0.0432303 132.18 39.3003
ITEM: TIMESTEP
3400
ITEM: NUMBER OF CUBES
1
ITEM: CUBES
1 1 1 2 3 4 5 6 7 8
ITEM: TIMESTEP
3500
ITEM: NUMBER OF NODES
8
ITEM: BOX BOUNDS
-0.0432303 416.065
-0.0205235 132.176
0 39.3003
ITEM: NODES
1 1 -0.0432303 -0.0205235 0
2 1 416.065 -0.0205235 0
3 1 416.065 132.176 0
4 1 -0.0432303 132.176 0
5 1 -0.0432303 -0.0205235 39.3003
6 1 416.065 -0.0205235 39.3003
7 1 416.065 132.176 39.3003
8 1 -0.0432303 132.176 39.3003
ITEM: TIMESTEP
3500
ITEM: NUMBER OF CUBES
1
ITEM: CUBES
1 1 1 2 3 4 5 6 7 8
ITEM: TIMESTEP
3600
ITEM: NUMBER OF NODES
8
ITEM: BOX BOUNDS
-0.0432303 416.065
-0.0205235 132.148
0 39.3003
ITEM: NODES
1 1 -0.0432303 -0.0205235 0
2 1 416.065 -0.0205235 0
3 1 416.065 132.148 0
4 1 -0.0432303 132.148 0
5 1 -0.0432303 -0.0205235 39.3003
6 1 416.065 -0.0205235 39.3003
7 1 416.065 132.148 39.3003
8 1 -0.0432303 132.148 39.3003
ITEM: TIMESTEP
3600
ITEM: NUMBER OF CUBES
1
ITEM: CUBES
1 1 1 2 3 4 5 6 7 8
ITEM: TIMESTEP
3700
ITEM: NUMBER OF NODES
8
ITEM: BOX BOUNDS
-0.0432303 416.065
-0.0205235 132.148
0 39.3003
ITEM: NODES
1 1 -0.0432303 -0.0205235 0
2 1 416.065 -0.0205235 0
3 1 416.065 132.148 0
4 1 -0.0432303 132.148 0
5 1 -0.0432303 -0.0205235 39.3003
6 1 416.065 -0.0205235 39.3003
7 1 416.065 132.148 39.3003
8 1 -0.0432303 132.148 39.3003
ITEM: TIMESTEP
3700
ITEM: NUMBER OF CUBES
1
ITEM: CUBES
1 1 1 2 3 4 5 6 7 8
ITEM: TIMESTEP
3800
ITEM: NUMBER OF NODES
8
ITEM: BOX BOUNDS
-0.0432303 416.065
-0.0205235 132.148
0 39.3003
ITEM: NODES
1 1 -0.0432303 -0.0205235 0
2 1 416.065 -0.0205235 0
3 1 416.065 132.148 0
4 1 -0.0432303 132.148 0
5 1 -0.0432303 -0.0205235 39.3003
6 1 416.065 -0.0205235 39.3003
7 1 416.065 132.148 39.3003
8 1 -0.0432303 132.148 39.3003
ITEM: TIMESTEP
3800
ITEM: NUMBER OF CUBES
1
ITEM: CUBES
1 1 1 2 3 4 5 6 7 8
ITEM: TIMESTEP
3900
ITEM: NUMBER OF NODES
8
ITEM: BOX BOUNDS
-0.0432303 416.065
-0.0205235 132.162
0 39.3003
ITEM: NODES
1 1 -0.0432303 -0.0205235 0
2 1 416.065 -0.0205235 0
3 1 416.065 132.162 0
4 1 -0.0432303 132.162 0
5 1 -0.0432303 -0.0205235 39.3003
6 1 416.065 -0.0205235 39.3003
7 1 416.065 132.162 39.3003
8 1 -0.0432303 132.162 39.3003
ITEM: TIMESTEP
3900
ITEM: NUMBER OF CUBES
1
ITEM: CUBES
1 1 1 2 3 4 5 6 7 8
ITEM: TIMESTEP
4000
ITEM: NUMBER OF NODES
8
ITEM: BOX BOUNDS
-0.0432303 416.065
-0.0205235 132.188
0 39.3003
ITEM: NODES
1 1 -0.0432303 -0.0205235 0
2 1 416.065 -0.0205235 0
3 1 416.065 132.188 0
4 1 -0.0432303 132.188 0
5 1 -0.0432303 -0.0205235 39.3003
6 1 416.065 -0.0205235 39.3003
7 1 416.065 132.188 39.3003
8 1 -0.0432303 132.188 39.3003
ITEM: TIMESTEP
4000
ITEM: NUMBER OF CUBES
1
ITEM: CUBES
1 1 1 2 3 4 5 6 7 8
ITEM: TIMESTEP
4100
ITEM: NUMBER OF NODES
8
ITEM: BOX BOUNDS
-0.0432303 416.065
-0.0205235 132.226
0 39.3003
ITEM: NODES
1 1 -0.0432303 -0.0205235 0
2 1 416.065 -0.0205235 0
3 1 416.065 132.226 0
4 1 -0.0432303 132.226 0
5 1 -0.0432303 -0.0205235 39.3003
6 1 416.065 -0.0205235 39.3003
7 1 416.065 132.226 39.3003
8 1 -0.0432303 132.226 39.3003
ITEM: TIMESTEP
4100
ITEM: NUMBER OF CUBES
1
ITEM: CUBES
1 1 1 2 3 4 5 6 7 8
ITEM: TIMESTEP
4200
ITEM: NUMBER OF NODES
8
ITEM: BOX BOUNDS
-0.0432303 416.065
-0.0205235 132.287
0 39.3003
ITEM: NODES
1 1 -0.0432303 -0.0205235 0
2 1 416.065 -0.0205235 0
3 1 416.065 132.287 0
4 1 -0.0432303 132.287 0
5 1 -0.0432303 -0.0205235 39.3003
6 1 416.065 -0.0205235 39.3003
7 1 416.065 132.287 39.3003
8 1 -0.0432303 132.287 39.3003
ITEM: TIMESTEP
4200
ITEM: NUMBER OF CUBES
1
ITEM: CUBES
1 1 1 2 3 4 5 6 7 8
ITEM: TIMESTEP
4300
ITEM: NUMBER OF NODES
8
ITEM: BOX BOUNDS
-0.0432303 416.065
-0.0205235 132.464
0 39.3003
ITEM: NODES
1 1 -0.0432303 -0.0205235 0
2 1 416.065 -0.0205235 0
3 1 416.065 132.464 0
4 1 -0.0432303 132.464 0
5 1 -0.0432303 -0.0205235 39.3003
6 1 416.065 -0.0205235 39.3003
7 1 416.065 132.464 39.3003
8 1 -0.0432303 132.464 39.3003
ITEM: TIMESTEP
4300
ITEM: NUMBER OF CUBES
1
ITEM: CUBES
1 1 1 2 3 4 5 6 7 8
ITEM: TIMESTEP
4400
ITEM: NUMBER OF NODES
8
ITEM: BOX BOUNDS
-0.0432303 416.065
-0.0205235 132.657
0 39.3003
ITEM: NODES
1 1 -0.0432303 -0.0205235 0
2 1 416.065 -0.0205235 0
3 1 416.065 132.657 0
4 1 -0.0432303 132.657 0
5 1 -0.0432303 -0.0205235 39.3003
6 1 416.065 -0.0205235 39.3003
7 1 416.065 132.657 39.3003
8 1 -0.0432303 132.657 39.3003
ITEM: TIMESTEP
4400
ITEM: NUMBER OF CUBES
1
ITEM: CUBES
1 1 1 2 3 4 5 6 7 8
ITEM: TIMESTEP
4500
ITEM: NUMBER OF NODES
8
ITEM: BOX BOUNDS
-0.0432303 416.065
-0.0205235 132.804
0 39.3003
ITEM: NODES
1 1 -0.0432303 -0.0205235 0
2 1 416.065 -0.0205235 0
3 1 416.065 132.804 0
4 1 -0.0432303 132.804 0
5 1 -0.0432303 -0.0205235 39.3003
6 1 416.065 -0.0205235 39.3003
7 1 416.065 132.804 39.3003
8 1 -0.0432303 132.804 39.3003
ITEM: TIMESTEP
4500
ITEM: NUMBER OF CUBES
1
ITEM: CUBES
1 1 1 2 3 4 5 6 7 8
ITEM: TIMESTEP
4600
ITEM: NUMBER OF NODES
8
ITEM: BOX BOUNDS
-0.0432303 416.065
-0.0205235 132.777
0 39.3003
ITEM: NODES
1 1 -0.0432303 -0.0205235 0
2 1 416.065 -0.0205235 0
3 1 416.065 132.777 0
4 1 -0.0432303 132.777 0
5 1 -0.0432303 -0.0205235 39.3003
6 1 416.065 -0.0205235 39.3003
7 1 416.065 132.777 39.3003
8 1 -0.0432303 132.777 39.3003
ITEM: TIMESTEP
4600
ITEM: NUMBER OF CUBES
1
ITEM: CUBES
1 1 1 2 3 4 5 6 7 8
ITEM: TIMESTEP
4700
ITEM: NUMBER OF NODES
8
ITEM: BOX BOUNDS
-0.0432303 416.065
-0.0205235 132.782
0 39.3003
ITEM: NODES
1 1 -0.0432303 -0.0205235 0
2 1 416.065 -0.0205235 0
3 1 416.065 132.782 0
4 1 -0.0432303 132.782 0
5 1 -0.0432303 -0.0205235 39.3003
6 1 416.065 -0.0205235 39.3003
7 1 416.065 132.782 39.3003
8 1 -0.0432303 132.782 39.3003
ITEM: TIMESTEP
4700
ITEM: NUMBER OF CUBES
1
ITEM: CUBES
1 1 1 2 3 4 5 6 7 8
ITEM: TIMESTEP
4800
ITEM: NUMBER OF NODES
8
ITEM: BOX BOUNDS
-0.0432303 416.065
-0.0205235 132.737
0 39.3003
ITEM: NODES
1 1 -0.0432303 -0.0205235 0
2 1 416.065 -0.0205235 0
3 1 416.065 132.737 0
4 1 -0.0432303 132.737 0
5 1 -0.0432303 -0.0205235 39.3003
6 1 416.065 -0.0205235 39.3003
7 1 416.065 132.737 39.3003
8 1 -0.0432303 132.737 39.3003
ITEM: TIMESTEP
4800
ITEM: NUMBER OF CUBES
1
ITEM: CUBES
1 1 1 2 3 4 5 6 7 8
ITEM: TIMESTEP
4900
ITEM: NUMBER OF NODES
8
ITEM: BOX BOUNDS
-0.0432303 416.065
-0.0205235 132.681
0 39.3003
ITEM: NODES
1 1 -0.0432303 -0.0205235 0
2 1 416.065 -0.0205235 0
3 1 416.065 132.681 0
4 1 -0.0432303 132.681 0
5 1 -0.0432303 -0.0205235 39.3003
6 1 416.065 -0.0205235 39.3003
7 1 416.065 132.681 39.3003
8 1 -0.0432303 132.681 39.3003
ITEM: TIMESTEP
4900
ITEM: NUMBER OF CUBES
1
ITEM: CUBES
1 1 1 2 3 4 5 6 7 8
ITEM: TIMESTEP
5000
ITEM: NUMBER OF NODES
8
ITEM: BOX BOUNDS
-0.0432303 416.065
-0.0205235 132.676
0 39.3003
ITEM: NODES
1 1 -0.0432303 -0.0205235 0
2 1 416.065 -0.0205235 0
3 1 416.065 132.676 0
4 1 -0.0432303 132.676 0
5 1 -0.0432303 -0.0205235 39.3003
6 1 416.065 -0.0205235 39.3003
7 1 416.065 132.676 39.3003
8 1 -0.0432303 132.676 39.3003
ITEM: TIMESTEP
5000
ITEM: NUMBER OF CUBES
1
ITEM: CUBES
1 1 1 2 3 4 5 6 7 8
ITEM: TIMESTEP
5100
ITEM: NUMBER OF NODES
8
ITEM: BOX BOUNDS
-0.0432303 416.065
-0.0205235 132.636
0 39.3003
ITEM: NODES
1 1 -0.0432303 -0.0205235 0
2 1 416.065 -0.0205235 0
3 1 416.065 132.636 0
4 1 -0.0432303 132.636 0
5 1 -0.0432303 -0.0205235 39.3003
6 1 416.065 -0.0205235 39.3003
7 1 416.065 132.636 39.3003
8 1 -0.0432303 132.636 39.3003
ITEM: TIMESTEP
5100
ITEM: NUMBER OF CUBES
1
ITEM: CUBES
1 1 1 2 3 4 5 6 7 8
ITEM: TIMESTEP
5200
ITEM: NUMBER OF NODES
8
ITEM: BOX BOUNDS
-0.0432303 416.065
-0.0205235 132.585
0 39.3003
ITEM: NODES
1 1 -0.0432303 -0.0205235 0
2 1 416.065 -0.0205235 0
3 1 416.065 132.585 0
4 1 -0.0432303 132.585 0
5 1 -0.0432303 -0.0205235 39.3003
6 1 416.065 -0.0205235 39.3003
7 1 416.065 132.585 39.3003
8 1 -0.0432303 132.585 39.3003
ITEM: TIMESTEP
5200
ITEM: NUMBER OF CUBES
1
ITEM: CUBES
1 1 1 2 3 4 5 6 7 8
ITEM: TIMESTEP
5300
ITEM: NUMBER OF NODES
8
ITEM: BOX BOUNDS
-0.0432303 416.065
-0.0205235 132.554
0 39.3003
ITEM: NODES
1 1 -0.0432303 -0.0205235 0
2 1 416.065 -0.0205235 0
3 1 416.065 132.554 0
4 1 -0.0432303 132.554 0
5 1 -0.0432303 -0.0205235 39.3003
6 1 416.065 -0.0205235 39.3003
7 1 416.065 132.554 39.3003
8 1 -0.0432303 132.554 39.3003
ITEM: TIMESTEP
5300
ITEM: NUMBER OF CUBES
1
ITEM: CUBES
1 1 1 2 3 4 5 6 7 8
ITEM: TIMESTEP
5400
ITEM: NUMBER OF NODES
8
ITEM: BOX BOUNDS
-0.0432303 416.065
-0.0205235 132.504
0 39.3003
ITEM: NODES
1 1 -0.0432303 -0.0205235 0
2 1 416.065 -0.0205235 0
3 1 416.065 132.504 0
4 1 -0.0432303 132.504 0
5 1 -0.0432303 -0.0205235 39.3003
6 1 416.065 -0.0205235 39.3003
7 1 416.065 132.504 39.3003
8 1 -0.0432303 132.504 39.3003
ITEM: TIMESTEP
5400
ITEM: NUMBER OF CUBES
1
ITEM: CUBES
1 1 1 2 3 4 5 6 7 8
ITEM: TIMESTEP
5500
ITEM: NUMBER OF NODES
8
ITEM: BOX BOUNDS
-0.0432303 416.065
-0.0205235 132.494
0 39.3003
ITEM: NODES
1 1 -0.0432303 -0.0205235 0
2 1 416.065 -0.0205235 0
3 1 416.065 132.494 0
4 1 -0.0432303 132.494 0
5 1 -0.0432303 -0.0205235 39.3003
6 1 416.065 -0.0205235 39.3003
7 1 416.065 132.494 39.3003
8 1 -0.0432303 132.494 39.3003
ITEM: TIMESTEP
5500
ITEM: NUMBER OF CUBES
1
ITEM: CUBES
1 1 1 2 3 4 5 6 7 8
ITEM: TIMESTEP
5600
ITEM: NUMBER OF NODES
8
ITEM: BOX BOUNDS
-0.0432303 416.065
-0.0205235 132.447
0 39.3003
ITEM: NODES
1 1 -0.0432303 -0.0205235 0
2 1 416.065 -0.0205235 0
3 1 416.065 132.447 0
4 1 -0.0432303 132.447 0
5 1 -0.0432303 -0.0205235 39.3003
6 1 416.065 -0.0205235 39.3003
7 1 416.065 132.447 39.3003
8 1 -0.0432303 132.447 39.3003
ITEM: TIMESTEP
5600
ITEM: NUMBER OF CUBES
1
ITEM: CUBES
1 1 1 2 3 4 5 6 7 8
ITEM: TIMESTEP
5700
ITEM: NUMBER OF NODES
8
ITEM: BOX BOUNDS
-0.0432303 416.065
-0.0205235 132.328
0 39.3003
ITEM: NODES
1 1 -0.0432303 -0.0205235 0
2 1 416.065 -0.0205235 0
3 1 416.065 132.328 0
4 1 -0.0432303 132.328 0
5 1 -0.0432303 -0.0205235 39.3003
6 1 416.065 -0.0205235 39.3003
7 1 416.065 132.328 39.3003
8 1 -0.0432303 132.328 39.3003
ITEM: TIMESTEP
5700
ITEM: NUMBER OF CUBES
1
ITEM: CUBES
1 1 1 2 3 4 5 6 7 8
ITEM: TIMESTEP
5800
ITEM: NUMBER OF NODES
8
ITEM: BOX BOUNDS
-0.0432303 416.065
-0.0205235 132.224
0 39.3003
ITEM: NODES
1 1 -0.0432303 -0.0205235 0
2 1 416.065 -0.0205235 0
3 1 416.065 132.224 0
4 1 -0.0432303 132.224 0
5 1 -0.0432303 -0.0205235 39.3003
6 1 416.065 -0.0205235 39.3003
7 1 416.065 132.224 39.3003
8 1 -0.0432303 132.224 39.3003
ITEM: TIMESTEP
5800
ITEM: NUMBER OF CUBES
1
ITEM: CUBES
1 1 1 2 3 4 5 6 7 8
ITEM: TIMESTEP
5900
ITEM: NUMBER OF NODES
8
ITEM: BOX BOUNDS
-0.0432303 416.065
-0.0205235 132.207
0 39.3003
ITEM: NODES
1 1 -0.0432303 -0.0205235 0
2 1 416.065 -0.0205235 0
3 1 416.065 132.207 0
4 1 -0.0432303 132.207 0
5 1 -0.0432303 -0.0205235 39.3003
6 1 416.065 -0.0205235 39.3003
7 1 416.065 132.207 39.3003
8 1 -0.0432303 132.207 39.3003
ITEM: TIMESTEP
5900
ITEM: NUMBER OF CUBES
1
ITEM: CUBES
1 1 1 2 3 4 5 6 7 8
ITEM: TIMESTEP
6000
ITEM: NUMBER OF NODES
8
ITEM: BOX BOUNDS
-0.0432303 416.065
-0.0205235 132.172
0 39.3003
ITEM: NODES
1 1 -0.0432303 -0.0205235 0
2 1 416.065 -0.0205235 0
3 1 416.065 132.172 0
4 1 -0.0432303 132.172 0
5 1 -0.0432303 -0.0205235 39.3003
6 1 416.065 -0.0205235 39.3003
7 1 416.065 132.172 39.3003
8 1 -0.0432303 132.172 39.3003
ITEM: TIMESTEP
6000
ITEM: NUMBER OF CUBES
1
ITEM: CUBES
1 1 1 2 3 4 5 6 7 8
ITEM: TIMESTEP
6100
ITEM: NUMBER OF NODES
8
ITEM: BOX BOUNDS
-0.0432303 416.065
-0.0205235 132.246
0 39.3003
ITEM: NODES
1 1 -0.0432303 -0.0205235 0
2 1 416.065 -0.0205235 0
3 1 416.065 132.246 0
4 1 -0.0432303 132.246 0
5 1 -0.0432303 -0.0205235 39.3003
6 1 416.065 -0.0205235 39.3003
7 1 416.065 132.246 39.3003
8 1 -0.0432303 132.246 39.3003
ITEM: TIMESTEP
6100
ITEM: NUMBER OF CUBES
1
ITEM: CUBES
1 1 1 2 3 4 5 6 7 8
ITEM: TIMESTEP
6200
ITEM: NUMBER OF NODES
8
ITEM: BOX BOUNDS
-0.0432303 416.065
-0.0205235 132.248
0 39.3003
ITEM: NODES
1 1 -0.0432303 -0.0205235 0
2 1 416.065 -0.0205235 0
3 1 416.065 132.248 0
4 1 -0.0432303 132.248 0
5 1 -0.0432303 -0.0205235 39.3003
6 1 416.065 -0.0205235 39.3003
7 1 416.065 132.248 39.3003
8 1 -0.0432303 132.248 39.3003
ITEM: TIMESTEP
6200
ITEM: NUMBER OF CUBES
1
ITEM: CUBES
1 1 1 2 3 4 5 6 7 8
ITEM: TIMESTEP
6300
ITEM: NUMBER OF NODES
8
ITEM: BOX BOUNDS
-0.0432303 416.065
-0.0205235 132.148
0 39.3003
ITEM: NODES
1 1 -0.0432303 -0.0205235 0
2 1 416.065 -0.0205235 0
3 1 416.065 132.148 0
4 1 -0.0432303 132.148 0
5 1 -0.0432303 -0.0205235 39.3003
6 1 416.065 -0.0205235 39.3003
7 1 416.065 132.148 39.3003
8 1 -0.0432303 132.148 39.3003
ITEM: TIMESTEP
6300
ITEM: NUMBER OF CUBES
1
ITEM: CUBES
1 1 1 2 3 4 5 6 7 8
ITEM: TIMESTEP
6400
ITEM: NUMBER OF NODES
8
ITEM: BOX BOUNDS
-0.0432303 416.065
-0.0205235 132.162
0 39.3003
ITEM: NODES
1 1 -0.0432303 -0.0205235 0
2 1 416.065 -0.0205235 0
3 1 416.065 132.162 0
4 1 -0.0432303 132.162 0
5 1 -0.0432303 -0.0205235 39.3003
6 1 416.065 -0.0205235 39.3003
7 1 416.065 132.162 39.3003
8 1 -0.0432303 132.162 39.3003
ITEM: TIMESTEP
6400
ITEM: NUMBER OF CUBES
1
ITEM: CUBES
1 1 1 2 3 4 5 6 7 8
ITEM: TIMESTEP
6500
ITEM: NUMBER OF NODES
8
ITEM: BOX BOUNDS
-0.0432303 416.065
-0.0205235 132.152
0 39.3003
ITEM: NODES
1 1 -0.0432303 -0.0205235 0
2 1 416.065 -0.0205235 0
3 1 416.065 132.152 0
4 1 -0.0432303 132.152 0
5 1 -0.0432303 -0.0205235 39.3003
6 1 416.065 -0.0205235 39.3003
7 1 416.065 132.152 39.3003
8 1 -0.0432303 132.152 39.3003
ITEM: TIMESTEP
6500
ITEM: NUMBER OF CUBES
1
ITEM: CUBES
1 1 1 2 3 4 5 6 7 8
ITEM: TIMESTEP
6600
ITEM: NUMBER OF NODES
8
ITEM: BOX BOUNDS
-0.0432303 416.065
-0.0205235 132.148
0 39.3003
ITEM: NODES
1 1 -0.0432303 -0.0205235 0
2 1 416.065 -0.0205235 0
3 1 416.065 132.148 0
4 1 -0.0432303 132.148 0
5 1 -0.0432303 -0.0205235 39.3003
6 1 416.065 -0.0205235 39.3003
7 1 416.065 132.148 39.3003
8 1 -0.0432303 132.148 39.3003
ITEM: TIMESTEP
6600
ITEM: NUMBER OF CUBES
1
ITEM: CUBES
1 1 1 2 3 4 5 6 7 8
ITEM: TIMESTEP
6700
ITEM: NUMBER OF NODES
8
ITEM: BOX BOUNDS
-0.0432303 416.065
-0.0205235 132.148
0 39.3003
ITEM: NODES
1 1 -0.0432303 -0.0205235 0
2 1 416.065 -0.0205235 0
3 1 416.065 132.148 0
4 1 -0.0432303 132.148 0
5 1 -0.0432303 -0.0205235 39.3003
6 1 416.065 -0.0205235 39.3003
7 1 416.065 132.148 39.3003
8 1 -0.0432303 132.148 39.3003
ITEM: TIMESTEP
6700
ITEM: NUMBER OF CUBES
1
ITEM: CUBES
1 1 1 2 3 4 5 6 7 8
ITEM: TIMESTEP
6800
ITEM: NUMBER OF NODES
8
ITEM: BOX BOUNDS
-0.0432303 416.065
-0.0205235 132.148
0 39.3003
ITEM: NODES
1 1 -0.0432303 -0.0205235 0
2 1 416.065 -0.0205235 0
3 1 416.065 132.148 0
4 1 -0.0432303 132.148 0
5 1 -0.0432303 -0.0205235 39.3003
6 1 416.065 -0.0205235 39.3003
7 1 416.065 132.148 39.3003
8 1 -0.0432303 132.148 39.3003
ITEM: TIMESTEP
6800
ITEM: NUMBER OF CUBES
1
ITEM: CUBES
1 1 1 2 3 4 5 6 7 8
ITEM: TIMESTEP
6900
ITEM: NUMBER OF NODES
8
ITEM: BOX BOUNDS
-0.0432303 416.065
-0.0205235 132.148
0 39.3003
ITEM: NODES
1 1 -0.0432303 -0.0205235 0
2 1 416.065 -0.0205235 0
3 1 416.065 132.148 0
4 1 -0.0432303 132.148 0
5 1 -0.0432303 -0.0205235 39.3003
6 1 416.065 -0.0205235 39.3003
7 1 416.065 132.148 39.3003
8 1 -0.0432303 132.148 39.3003
ITEM: TIMESTEP
6900
ITEM: NUMBER OF CUBES
1
ITEM: CUBES
1 1 1 2 3 4 5 6 7 8
ITEM: TIMESTEP
7000
ITEM: NUMBER OF NODES
8
ITEM: BOX BOUNDS
-0.0432303 416.065
-0.0205235 132.148
0 39.3003
ITEM: NODES
1 1 -0.0432303 -0.0205235 0